<VTKFile type="UnstructuredGrid" version="1,0" byte_order="LittleEndian">
<UnstructuredGrid>
<Piece NumberOfPoints="99" NumberOfCells="80">
<Points>
<DataArray type="Float64" NumberOfComponents="3" format="ascii">
21.25 22.5 0.0
15.75 22.5 0.0
10.25 22.5 0.0
4.75 22.5 0.0
-0.75 22.5 0.0
-6.25 22.5 0.0
-11.75 22.5 0.0
-17.25 22.5 0.0
-22.75 22.5 0.0
-28.25 22.5 0.0
-33.75 22.5 0.0
21.25 17.34375 0.0
15.75 17.34375 0.0
10.25 17.34375 0.0
4.75 17.34375 0.0
-0.75 17.34375 0.0
-6.25 17.34375 0.0
-11.75 17.34375 0.0
-17.25 17.34375 0.0
-22.75 17.34375 0.0
-28.25 17.34375 0.0
-33.75 17.34375 0.0
21.25 12.1875 0.0
15.75 12.1875 0.0
10.25 12.1875 0.0
4.75 12.1875 0.0
-0.75 12.1875 0.0
-6.25 12.1875 0.0
-11.75 12.1875 0.0
-17.25 12.1875 0.0
-22.75 12.1875 0.0
-28.25 12.1875 0.0
-33.75 12.1875 0.0
21.25 7.03125 0.0
15.75 7.03125 0.0
10.25 7.03125 0.0
4.75 7.03125 0.0
-0.75 7.03125 0.0
-6.25 7.03125 0.0
-11.75 7.03125 0.0
-17.25 7.03125 0.0
-22.75 7.03125 0.0
-28.25 7.03125 0.0
-33.75 7.03125 0.0
21.25 1.875 0.0
15.75 1.875 0.0
10.25 1.875 0.0
4.75 1.875 0.0
-0.75 1.875 0.0
-6.25 1.875 0.0
-11.75 1.875 0.0
-17.25 1.875 0.0
-22.75 1.875 0.0
-28.25 1.875 0.0
-33.75 1.875 0.0
21.25 -3.28125 0.0
15.75 -3.28125 0.0
10.25 -3.28125 0.0
4.75 -3.28125 0.0
-0.75 -3.28125 0.0
-6.25 -3.28125 0.0
-11.75 -3.28125 0.0
-17.25 -3.28125 0.0
-22.75 -3.28125 0.0
-28.25 -3.28125 0.0
-33.75 -3.28125 0.0
21.25 -8.4375 0.0
15.75 -8.4375 0.0
10.25 -8.4375 0.0
4.75 -8.4375 0.0
-0.75 -8.4375 0.0
-6.25 -8.4375 0.0
-11.75 -8.4375 0.0
-17.25 -8.4375 0.0
-22.75 -8.4375 0.0
-28.25 -8.4375 0.0
-33.75 -8.4375 0.0
21.25 -13.59375 0.0
15.75 -13.59375 0.0
10.25 -13.59375 0.0
4.75 -13.59375 0.0
-0.75 -13.59375 0.0
-6.25 -13.59375 0.0
-11.75 -13.59375 0.0
-17.25 -13.59375 0.0
-22.75 -13.59375 0.0
-28.25 -13.59375 0.0
-33.75 -13.59375 0.0
21.25 -18.75 0.0
15.75 -18.75 0.0
10.25 -18.75 0.0
4.75 -18.75 0.0
-0.75 -18.75 0.0
-6.25 -18.75 0.0
-11.75 -18.75 0.0
-17.25 -18.75 0.0
-22.75 -18.75 0.0
-28.25 -18.75 0.0
-33.75 -18.75 0.0
</DataArray>
</Points>
<PointData Vectors="'RF','U'" >
<DataArray type="Float32" Name="RF" NumberOfComponents="2" ComponentName0="RF1" ComponentName1="RF2" format="ascii">
0.0 0.0 
0.0 0.0 
0.0 0.0 
0.0 0.0 
0.0 0.0 
0.0 0.0 
0.0 0.0 
0.0 0.0 
0.0 0.0 
0.0 0.0 
32.2542762756 -6.58235549927 
0.0 0.0 
0.0 0.0 
0.0 0.0 
0.0 0.0 
0.0 0.0 
0.0 0.0 
0.0 0.0 
0.0 0.0 
0.0 0.0 
0.0 0.0 
53.7793197632 -9.55131435394 
0.0 0.0 
0.0 0.0 
0.0 0.0 
0.0 0.0 
0.0 0.0 
0.0 0.0 
0.0 0.0 
0.0 0.0 
0.0 0.0 
0.0 0.0 
47.5027809143 -4.52349996567 
0.0 0.0 
0.0 0.0 
0.0 0.0 
0.0 0.0 
0.0 0.0 
0.0 0.0 
0.0 0.0 
0.0 0.0 
0.0 0.0 
0.0 0.0 
48.9875488281 -2.40105485916 
0.0 0.0 
0.0 0.0 
0.0 0.0 
0.0 0.0 
0.0 0.0 
0.0 0.0 
0.0 0.0 
0.0 0.0 
0.0 0.0 
0.0 0.0 
47.4521484375 1.50990331349e-14 
0.0 0.0 
0.0 0.0 
0.0 0.0 
0.0 0.0 
0.0 0.0 
0.0 0.0 
0.0 0.0 
0.0 0.0 
0.0 0.0 
0.0 0.0 
48.9875488281 2.40105485916 
0.0 0.0 
0.0 0.0 
0.0 0.0 
0.0 0.0 
0.0 0.0 
0.0 0.0 
0.0 0.0 
0.0 0.0 
0.0 0.0 
0.0 0.0 
47.5027809143 4.52349996567 
0.0 0.0 
0.0 0.0 
0.0 0.0 
0.0 0.0 
0.0 0.0 
0.0 0.0 
0.0 0.0 
0.0 0.0 
0.0 0.0 
0.0 0.0 
53.7793197632 9.55131435394 
0.0 0.0 
0.0 0.0 
0.0 0.0 
0.0 0.0 
0.0 0.0 
0.0 0.0 
0.0 0.0 
0.0 0.0 
0.0 0.0 
0.0 0.0 
32.2542762756 6.58235549927 
</DataArray>
<DataArray type="Float32" Name="U" NumberOfComponents="2" ComponentName0="U1" ComponentName1="U2" format="ascii">
-5.38673973083 0.601985156536 
-4.96030473709 0.641985476017 
-4.29542207718 0.603630363941 
-3.8558754921 0.645852088928 
-3.2106449604 0.60618019104 
-2.76752018929 0.648345351219 
-2.14882779121 0.591795027256 
-1.71579992771 0.613996863365 
-1.12384438515 0.490018039942 
-0.713152348995 0.421909481287 
-3.22542764198e-35 6.58235510487e-36 
-5.51467227936 0.482196331024 
-4.84103727341 0.452114075422 
-4.40746974945 0.48459109664 
-3.7506737709 0.455245763063 
-3.30592346191 0.491239607334 
-2.66555070877 0.455399155617 
-2.21453428268 0.487070739269 
-1.58770954609 0.416085869074 
-1.13082695007 0.404952138662 
-0.473270177841 0.200053483248 
-5.37793199879e-35 9.55131418721e-36 
-5.38604211807 0.301576733589 
-4.96012973785 0.322729706764 
-4.29361820221 0.302789270878 
-3.85223698616 0.327334910631 
-3.19827651978 0.306097388268 
-2.74358582497 0.332410693169 
-2.09857344627 0.297092705965 
-1.6310904026 0.306985020638 
-0.990663468838 0.215894043446 
-0.517557144165 0.130455359817 
-4.75027799551e-35 4.52350013876e-36 
-5.5143404007 0.16164547205 
-4.83892965317 0.150849640369 
-4.40430831909 0.162757575512 
-3.74208545685 0.152695000172 
-3.29107737541 0.166421383619 
-2.63539290428 0.153083443642 
-2.16805267334 0.164699226618 
-1.52199757099 0.133981153369 
-1.0443482399 0.113481529057 
-0.471114754677 0.0571509636939 
-4.89875504282e-35 2.40105483128e-36 
-5.38456201553 -3.33895115028e-15 
-4.95884275436 -3.76766057114e-15 
-4.29052829742 -2.34179685971e-15 
-3.8470416069 -2.47744473929e-15 
-3.18705940247 -7.78152280923e-16 
-2.72623205185 -1.58553725704e-15 
-2.07081747055 -7.23528767281e-16 
-1.59471774101 -6.67887014157e-16 
-0.979306161404 -5.77498963685e-16 
-0.501974463463 -2.3288662665e-16 
-4.74521498981e-35 -0.0 
-5.5143404007 -0.16164547205 
-4.83892965317 -0.150849640369 
-4.40430831909 -0.162757575512 
-3.74208545685 -0.152695000172 
-3.29107737541 -0.166421383619 
-2.63539290428 -0.153083443642 
-2.16805267334 -0.164699226618 
-1.52199757099 -0.133981153369 
-1.0443482399 -0.113481529057 
-0.471114754677 -0.0571509636939 
-4.89875504282e-35 -2.40105483128e-36 
-5.38604211807 -0.301576733589 
-4.96012973785 -0.322729706764 
-4.29361820221 -0.302789270878 
-3.85223698616 -0.327334910631 
-3.19827651978 -0.306097388268 
-2.74358582497 -0.332410693169 
-2.09857344627 -0.297092705965 
-1.6310904026 -0.306985020638 
-0.990663468838 -0.215894043446 
-0.517557144165 -0.130455359817 
-4.75027799551e-35 -4.52350013876e-36 
-5.51467227936 -0.482196331024 
-4.84103727341 -0.452114075422 
-4.40746974945 -0.48459109664 
-3.7506737709 -0.455245763063 
-3.30592346191 -0.491239607334 
-2.66555070877 -0.455399155617 
-2.21453428268 -0.487070739269 
-1.58770954609 -0.416085869074 
-1.13082695007 -0.404952138662 
-0.473270177841 -0.200053483248 
-5.37793199879e-35 -9.55131418721e-36 
-5.38673973083 -0.601985156536 
-4.96030473709 -0.641985476017 
-4.29542207718 -0.603630363941 
-3.8558754921 -0.645852088928 
-3.2106449604 -0.60618019104 
-2.76752018929 -0.648345351219 
-2.14882779121 -0.591795027256 
-1.71579992771 -0.613996863365 
-1.12384438515 -0.490018039942 
-0.713152348995 -0.421909481287 
-3.22542764198e-35 -6.58235510487e-36 
</DataArray>
</PointData>
<CellData Vectors="'Material_Orientation'" Tensors="'E_Centroid','E_IntegrationPoints','S_Centroid','S_IntegrationPoints'" >
<DataArray type="Float32" Name="E_Centroid" NumberOfComponents="4" ComponentName0="E11" ComponentName1="E22" ComponentName2="E33" ComponentName3="E12" format="ascii">
-0.100006379187 0.0300276577473 0.0 -6.14330856479e-05 
-0.0998590737581 0.0299549773335 0.0 -0.000165757359355 
-0.0996675267816 0.0300262384117 0.0 -0.000506738142576 
-0.0990891829133 0.0296287871897 0.0 -0.000627874571364 
-0.0984997823834 0.0298556871712 0.0 -0.0012237878982 
-0.0972462520003 0.0288650188595 0.0 -0.00125470978674 
-0.0963502302766 0.0293464511633 0.0 -0.00161453289911 
-0.0953489169478 0.0274401847273 0.0 0.000539171393029 
-0.0971135273576 0.0297621227801 0.0 0.0022346379701 
-0.107856594026 0.0215133074671 0.0 0.0332807861269 
-0.0999588519335 0.0300609916449 0.0 -0.000113078429422 
-0.100007161498 0.0301756281406 0.0 -0.000631444971077 
-0.0998343229294 0.0300327427685 0.0 -0.000755273504183 
-0.0998827815056 0.0303566642106 0.0 -0.00193142041098 
-0.099551230669 0.0298793390393 0.0 -0.0020053179469 
-0.0996389910579 0.0303482655436 0.0 -0.0033461228013 
-0.0994825288653 0.0290015861392 0.0 -0.00148417835589 
-0.0997554063797 0.0289123803377 0.0 -9.18313962757e-05 
-0.102787554264 0.0250818133354 0.0 0.0170971844345 
-0.0900752171874 0.00674890866503 0.0 0.0343407541513 
-0.100120261312 0.0302362497896 0.0 -0.000253262958722 
-0.100102998316 0.0302459895611 0.0 -0.000288943614578 
-0.100327663124 0.0305136106908 0.0 -0.00126440869644 
-0.100451678038 0.030479118228 0.0 -0.000999665237032 
-0.10094320029 0.0309336483479 0.0 -0.00267217913643 
-0.101122960448 0.0302274655551 0.0 -0.00159932975657 
-0.101230747998 0.0296142883599 0.0 -0.00194806430954 
-0.101643294096 0.0267070420086 0.0 0.00477170431986 
-0.0951217934489 0.0170392151922 0.0 0.0135904029012 
-0.0898792669177 0.00710830511525 0.0 0.0125516150147 
-0.100102744997 0.0303025562316 0.0 2.47878761002e-05 
-0.100266866386 0.0304103977978 0.0 -0.000487835233798 
-0.100519068539 0.0305893421173 0.0 5.91238494962e-05 
-0.100999116898 0.0309446193278 0.0 -0.00115688645747 
-0.101501077414 0.0309822876006 0.0 -6.53977549518e-05 
-0.102068610489 0.0308152902871 0.0 -0.00167619949207 
-0.102014072239 0.0289629474282 0.0 0.000415332469856 
-0.0993691757321 0.0239963829517 0.0 0.00260814349167 
-0.0955059230328 0.0165461823344 0.0 0.00180630595423 
-0.0884626582265 0.00554191181436 0.0 0.00818799808621 
-0.100102744997 0.0303025562316 0.0 -2.47878761002e-05 
-0.100266866386 0.0304103977978 0.0 0.000487835233798 
-0.100519068539 0.0305893421173 0.0 -5.91238494962e-05 
-0.100999116898 0.0309446193278 0.0 0.00115688645747 
-0.101501077414 0.0309822876006 0.0 6.53977549518e-05 
-0.102068610489 0.0308152902871 0.0 0.00167619949207 
-0.102014072239 0.0289629474282 0.0 -0.000415332469856 
-0.0993691757321 0.0239963829517 0.0 -0.00260814349167 
-0.0955059230328 0.0165461823344 0.0 -0.00180630595423 
-0.0884626582265 0.00554191181436 0.0 -0.00818799808621 
-0.100120261312 0.0302362497896 0.0 0.000253262958722 
-0.100102998316 0.0302459895611 0.0 0.000288943614578 
-0.100327663124 0.0305136106908 0.0 0.00126440869644 
-0.100451678038 0.030479118228 0.0 0.000999665237032 
-0.10094320029 0.0309336483479 0.0 0.00267217913643 
-0.101122960448 0.0302274655551 0.0 0.00159932975657 
-0.101230747998 0.0296142883599 0.0 0.00194806430954 
-0.101643294096 0.0267070420086 0.0 -0.00477170431986 
-0.0951217934489 0.0170392151922 0.0 -0.0135904029012 
-0.0898792669177 0.00710830511525 0.0 -0.0125516150147 
-0.0999588519335 0.0300609916449 0.0 0.000113078429422 
-0.100007161498 0.0301756281406 0.0 0.000631444971077 
-0.0998343229294 0.0300327427685 0.0 0.000755273504183 
-0.0998827815056 0.0303566642106 0.0 0.00193142041098 
-0.099551230669 0.0298793390393 0.0 0.0020053179469 
-0.0996389910579 0.0303482655436 0.0 0.0033461228013 
-0.0994825288653 0.0290015861392 0.0 0.00148417835589 
-0.0997554063797 0.0289123803377 0.0 9.18313962757e-05 
-0.102787554264 0.0250818133354 0.0 -0.0170971844345 
-0.0900752171874 0.00674890866503 0.0 -0.0343407541513 
-0.100006379187 0.0300276577473 0.0 6.14330856479e-05 
-0.0998590737581 0.0299549773335 0.0 0.000165757359355 
-0.0996675267816 0.0300262384117 0.0 0.000506738142576 
-0.0990891829133 0.0296287871897 0.0 0.000627874571364 
-0.0984997823834 0.0298556871712 0.0 0.0012237878982 
-0.0972462520003 0.0288650188595 0.0 0.00125470978674 
-0.0963502302766 0.0293464511633 0.0 0.00161453289911 
-0.0953489169478 0.0274401847273 0.0 -0.000539171393029 
-0.0971135273576 0.0297621227801 0.0 -0.0022346379701 
-0.107856594026 0.0215133074671 0.0 -0.0332807861269 
</DataArray>
<DataArray type="Float32" Name="E_IntegrationPoints" NumberOfComponents="4" ComponentName0="E11" ComponentName1="E22" ComponentName2="E33" ComponentName3="E12" format="ascii">
-0.100006379187 0.0300276577473 0.0 -6.14330856479e-05 
-0.0998590737581 0.0299549773335 0.0 -0.000165757359355 
-0.0996675267816 0.0300262384117 0.0 -0.000506738142576 
-0.0990891829133 0.0296287871897 0.0 -0.000627874571364 
-0.0984997823834 0.0298556871712 0.0 -0.0012237878982 
-0.0972462520003 0.0288650188595 0.0 -0.00125470978674 
-0.0963502302766 0.0293464511633 0.0 -0.00161453289911 
-0.0953489169478 0.0274401847273 0.0 0.000539171393029 
-0.0971135273576 0.0297621227801 0.0 0.0022346379701 
-0.107856594026 0.0215133074671 0.0 0.0332807861269 
-0.0999588519335 0.0300609916449 0.0 -0.000113078429422 
-0.100007161498 0.0301756281406 0.0 -0.000631444971077 
-0.0998343229294 0.0300327427685 0.0 -0.000755273504183 
-0.0998827815056 0.0303566642106 0.0 -0.00193142041098 
-0.099551230669 0.0298793390393 0.0 -0.0020053179469 
-0.0996389910579 0.0303482655436 0.0 -0.0033461228013 
-0.0994825288653 0.0290015861392 0.0 -0.00148417835589 
-0.0997554063797 0.0289123803377 0.0 -9.18313962757e-05 
-0.102787554264 0.0250818133354 0.0 0.0170971844345 
-0.0900752171874 0.00674890866503 0.0 0.0343407541513 
-0.100120261312 0.0302362497896 0.0 -0.000253262958722 
-0.100102998316 0.0302459895611 0.0 -0.000288943614578 
-0.100327663124 0.0305136106908 0.0 -0.00126440869644 
-0.100451678038 0.030479118228 0.0 -0.000999665237032 
-0.10094320029 0.0309336483479 0.0 -0.00267217913643 
-0.101122960448 0.0302274655551 0.0 -0.00159932975657 
-0.101230747998 0.0296142883599 0.0 -0.00194806430954 
-0.101643294096 0.0267070420086 0.0 0.00477170431986 
-0.0951217934489 0.0170392151922 0.0 0.0135904029012 
-0.0898792669177 0.00710830511525 0.0 0.0125516150147 
-0.100102744997 0.0303025562316 0.0 2.47878761002e-05 
-0.100266866386 0.0304103977978 0.0 -0.000487835233798 
-0.100519068539 0.0305893421173 0.0 5.91238494962e-05 
-0.100999116898 0.0309446193278 0.0 -0.00115688645747 
-0.101501077414 0.0309822876006 0.0 -6.53977549518e-05 
-0.102068610489 0.0308152902871 0.0 -0.00167619949207 
-0.102014072239 0.0289629474282 0.0 0.000415332469856 
-0.0993691757321 0.0239963829517 0.0 0.00260814349167 
-0.0955059230328 0.0165461823344 0.0 0.00180630595423 
-0.0884626582265 0.00554191181436 0.0 0.00818799808621 
-0.100102744997 0.0303025562316 0.0 -2.47878761002e-05 
-0.100266866386 0.0304103977978 0.0 0.000487835233798 
-0.100519068539 0.0305893421173 0.0 -5.91238494962e-05 
-0.100999116898 0.0309446193278 0.0 0.00115688645747 
-0.101501077414 0.0309822876006 0.0 6.53977549518e-05 
-0.102068610489 0.0308152902871 0.0 0.00167619949207 
-0.102014072239 0.0289629474282 0.0 -0.000415332469856 
-0.0993691757321 0.0239963829517 0.0 -0.00260814349167 
-0.0955059230328 0.0165461823344 0.0 -0.00180630595423 
-0.0884626582265 0.00554191181436 0.0 -0.00818799808621 
-0.100120261312 0.0302362497896 0.0 0.000253262958722 
-0.100102998316 0.0302459895611 0.0 0.000288943614578 
-0.100327663124 0.0305136106908 0.0 0.00126440869644 
-0.100451678038 0.030479118228 0.0 0.000999665237032 
-0.10094320029 0.0309336483479 0.0 0.00267217913643 
-0.101122960448 0.0302274655551 0.0 0.00159932975657 
-0.101230747998 0.0296142883599 0.0 0.00194806430954 
-0.101643294096 0.0267070420086 0.0 -0.00477170431986 
-0.0951217934489 0.0170392151922 0.0 -0.0135904029012 
-0.0898792669177 0.00710830511525 0.0 -0.0125516150147 
-0.0999588519335 0.0300609916449 0.0 0.000113078429422 
-0.100007161498 0.0301756281406 0.0 0.000631444971077 
-0.0998343229294 0.0300327427685 0.0 0.000755273504183 
-0.0998827815056 0.0303566642106 0.0 0.00193142041098 
-0.099551230669 0.0298793390393 0.0 0.0020053179469 
-0.0996389910579 0.0303482655436 0.0 0.0033461228013 
-0.0994825288653 0.0290015861392 0.0 0.00148417835589 
-0.0997554063797 0.0289123803377 0.0 9.18313962757e-05 
-0.102787554264 0.0250818133354 0.0 -0.0170971844345 
-0.0900752171874 0.00674890866503 0.0 -0.0343407541513 
-0.100006379187 0.0300276577473 0.0 6.14330856479e-05 
-0.0998590737581 0.0299549773335 0.0 0.000165757359355 
-0.0996675267816 0.0300262384117 0.0 0.000506738142576 
-0.0990891829133 0.0296287871897 0.0 0.000627874571364 
-0.0984997823834 0.0298556871712 0.0 0.0012237878982 
-0.0972462520003 0.0288650188595 0.0 0.00125470978674 
-0.0963502302766 0.0293464511633 0.0 0.00161453289911 
-0.0953489169478 0.0274401847273 0.0 -0.000539171393029 
-0.0971135273576 0.0297621227801 0.0 -0.0022346379701 
-0.107856594026 0.0215133074671 0.0 -0.0332807861269 
</DataArray>
<DataArray type="Float32" Name="S_Centroid" NumberOfComponents="4" ComponentName0="S11" ComponentName1="S22" ComponentName2="S33" ComponentName3="S12" format="ascii">
-9.99978923798 0.00282902200706 0.0 -0.00236281100661 
-9.98599815369 -0.000301668245811 0.0 -0.00637528300285 
-9.96259975433 0.0138439908624 0.0 -0.01948992908 
-9.91214847565 -0.0107657713816 0.0 -0.0241490229964 
-9.83989906311 0.0335991121829 0.0 -0.0470687672496 
-9.73480701447 -0.0339402072132 0.0 -0.0482580699027 
-9.62047195435 0.0485036447644 0.0 -0.0620974227786 
-9.57328128815 -0.127965986729 0.0 0.0207373611629 
-9.69064807892 0.0690180361271 0.0 0.0859476178885 
-11.1431427002 -1.19161212444 0.0 1.28003025055 
-9.99346733093 0.00805882364511 0.0 -0.00434917025268 
-9.99499702454 0.0190636049956 0.0 -0.0242863446474 
-9.9807138443 0.00906012393534 0.0 -0.029048981145 
-9.97536087036 0.0430581904948 0.0 -0.074285402894 
-9.954662323 0.00153514987323 0.0 -0.0771276131272 
-9.94884681702 0.0501723513007 0.0 -0.128697037697 
-9.97604942322 -0.092656224966 0.0 -0.0570837818086 
-10.0089769363 -0.111454986036 0.0 -0.0035319768358 
-10.4684619904 -0.632357299328 0.0 0.657584011555 
-9.67588329315 -2.22787427902 0.0 1.32079827785 
-10.0054273605 0.021996896714 0.0 -0.00974088348448 
-10.0032081604 0.0236364211887 0.0 -0.0111132152379 
-10.0190753937 0.045638628304 0.0 -0.048631105572 
-10.0338392258 0.0377600044012 0.0 -0.0384486652911 
-10.0728683472 0.0715042427182 0.0 -0.102776125073 
-10.1159038544 -0.0120245451108 0.0 -0.0615126825869 
-10.1479625702 -0.082960113883 0.0 -0.0749255493283 
-10.2891407013 -0.416038155556 0.0 0.183527097106 
-9.89121246338 -1.2634421587 0.0 0.522707819939 
-9.64250278473 -2.18192028999 0.0 0.482754409313 
-10.0013160706 0.0298607610166 0.0 0.000953379902057 
-10.0157966614 0.0363008268178 0.0 -0.0187628939748 
-10.0376119614 0.0476505868137 0.0 0.00227399426512 
-10.0786523819 0.0708663240075 0.0 -0.0444956310093 
-10.1325702667 0.0584576874971 0.0 -0.00251529831439 
-10.2004423141 0.0213963463902 0.0 -0.0644692108035 
-10.2555150986 -0.180359914899 0.0 0.0159743260592 
-10.1286001205 -0.638941824436 0.0 0.100313216448 
-9.94967746735 -1.33028519154 0.0 0.0694733038545 
-9.53847122192 -2.30735015869 0.0 0.314922988415 
-10.0013160706 0.0298607610166 0.0 -0.000953379902057 
-10.0157966614 0.0363008268178 0.0 0.0187628939748 
-10.0376119614 0.0476505868137 0.0 -0.00227399426512 
-10.0786523819 0.0708663240075 0.0 0.0444956310093 
-10.1325702667 0.0584576874971 0.0 0.00251529831439 
-10.2004423141 0.0213963463902 0.0 0.0644692108035 
-10.2555150986 -0.180359914899 0.0 -0.0159743260592 
-10.1286001205 -0.638941824436 0.0 -0.100313216448 
-9.94967746735 -1.33028519154 0.0 -0.0694733038545 
-9.53847122192 -2.30735015869 0.0 -0.314922988415 
-10.0054273605 0.021996896714 0.0 0.00974088348448 
-10.0032081604 0.0236364211887 0.0 0.0111132152379 
-10.0190753937 0.045638628304 0.0 0.048631105572 
-10.0338392258 0.0377600044012 0.0 0.0384486652911 
-10.0728683472 0.0715042427182 0.0 0.102776125073 
-10.1159038544 -0.0120245451108 0.0 0.0615126825869 
-10.1479625702 -0.082960113883 0.0 0.0749255493283 
-10.2891407013 -0.416038155556 0.0 -0.183527097106 
-9.89121246338 -1.2634421587 0.0 -0.522707819939 
-9.64250278473 -2.18192028999 0.0 -0.482754409313 
-9.99346733093 0.00805882364511 0.0 0.00434917025268 
-9.99499702454 0.0190636049956 0.0 0.0242863446474 
-9.9807138443 0.00906012393534 0.0 0.029048981145 
-9.97536087036 0.0430581904948 0.0 0.074285402894 
-9.954662323 0.00153514987323 0.0 0.0771276131272 
-9.94884681702 0.0501723513007 0.0 0.128697037697 
-9.97604942322 -0.092656224966 0.0 0.0570837818086 
-10.0089769363 -0.111454986036 0.0 0.0035319768358 
-10.4684619904 -0.632357299328 0.0 -0.657584011555 
-9.67588329315 -2.22787427902 0.0 -1.32079827785 
-9.99978923798 0.00282902200706 0.0 0.00236281100661 
-9.98599815369 -0.000301668245811 0.0 0.00637528300285 
-9.96259975433 0.0138439908624 0.0 0.01948992908 
-9.91214847565 -0.0107657713816 0.0 0.0241490229964 
-9.83989906311 0.0335991121829 0.0 0.0470687672496 
-9.73480701447 -0.0339402072132 0.0 0.0482580699027 
-9.62047195435 0.0485036447644 0.0 0.0620974227786 
-9.57328128815 -0.127965986729 0.0 -0.0207373611629 
-9.69064807892 0.0690180361271 0.0 -0.0859476178885 
-11.1431427002 -1.19161212444 0.0 -1.28003025055 
</DataArray>
<DataArray type="Float32" Name="S_IntegrationPoints" NumberOfComponents="4" ComponentName0="S11" ComponentName1="S22" ComponentName2="S33" ComponentName3="S12" format="ascii">
-9.99978923798 0.00282902200706 0.0 -0.00236281100661 
-9.98599815369 -0.000301668245811 0.0 -0.00637528300285 
-9.96259975433 0.0138439908624 0.0 -0.01948992908 
-9.91214847565 -0.0107657713816 0.0 -0.0241490229964 
-9.83989906311 0.0335991121829 0.0 -0.0470687672496 
-9.73480701447 -0.0339402072132 0.0 -0.0482580699027 
-9.62047195435 0.0485036447644 0.0 -0.0620974227786 
-9.57328128815 -0.127965986729 0.0 0.0207373611629 
-9.69064807892 0.0690180361271 0.0 0.0859476178885 
-11.1431427002 -1.19161212444 0.0 1.28003025055 
-9.99346733093 0.00805882364511 0.0 -0.00434917025268 
-9.99499702454 0.0190636049956 0.0 -0.0242863446474 
-9.9807138443 0.00906012393534 0.0 -0.029048981145 
-9.97536087036 0.0430581904948 0.0 -0.074285402894 
-9.954662323 0.00153514987323 0.0 -0.0771276131272 
-9.94884681702 0.0501723513007 0.0 -0.128697037697 
-9.97604942322 -0.092656224966 0.0 -0.0570837818086 
-10.0089769363 -0.111454986036 0.0 -0.0035319768358 
-10.4684619904 -0.632357299328 0.0 0.657584011555 
-9.67588329315 -2.22787427902 0.0 1.32079827785 
-10.0054273605 0.021996896714 0.0 -0.00974088348448 
-10.0032081604 0.0236364211887 0.0 -0.0111132152379 
-10.0190753937 0.045638628304 0.0 -0.048631105572 
-10.0338392258 0.0377600044012 0.0 -0.0384486652911 
-10.0728683472 0.0715042427182 0.0 -0.102776125073 
-10.1159038544 -0.0120245451108 0.0 -0.0615126825869 
-10.1479625702 -0.082960113883 0.0 -0.0749255493283 
-10.2891407013 -0.416038155556 0.0 0.183527097106 
-9.89121246338 -1.2634421587 0.0 0.522707819939 
-9.64250278473 -2.18192028999 0.0 0.482754409313 
-10.0013160706 0.0298607610166 0.0 0.000953379902057 
-10.0157966614 0.0363008268178 0.0 -0.0187628939748 
-10.0376119614 0.0476505868137 0.0 0.00227399426512 
-10.0786523819 0.0708663240075 0.0 -0.0444956310093 
-10.1325702667 0.0584576874971 0.0 -0.00251529831439 
-10.2004423141 0.0213963463902 0.0 -0.0644692108035 
-10.2555150986 -0.180359914899 0.0 0.0159743260592 
-10.1286001205 -0.638941824436 0.0 0.100313216448 
-9.94967746735 -1.33028519154 0.0 0.0694733038545 
-9.53847122192 -2.30735015869 0.0 0.314922988415 
-10.0013160706 0.0298607610166 0.0 -0.000953379902057 
-10.0157966614 0.0363008268178 0.0 0.0187628939748 
-10.0376119614 0.0476505868137 0.0 -0.00227399426512 
-10.0786523819 0.0708663240075 0.0 0.0444956310093 
-10.1325702667 0.0584576874971 0.0 0.00251529831439 
-10.2004423141 0.0213963463902 0.0 0.0644692108035 
-10.2555150986 -0.180359914899 0.0 -0.0159743260592 
-10.1286001205 -0.638941824436 0.0 -0.100313216448 
-9.94967746735 -1.33028519154 0.0 -0.0694733038545 
-9.53847122192 -2.30735015869 0.0 -0.314922988415 
-10.0054273605 0.021996896714 0.0 0.00974088348448 
-10.0032081604 0.0236364211887 0.0 0.0111132152379 
-10.0190753937 0.045638628304 0.0 0.048631105572 
-10.0338392258 0.0377600044012 0.0 0.0384486652911 
-10.0728683472 0.0715042427182 0.0 0.102776125073 
-10.1159038544 -0.0120245451108 0.0 0.0615126825869 
-10.1479625702 -0.082960113883 0.0 0.0749255493283 
-10.2891407013 -0.416038155556 0.0 -0.183527097106 
-9.89121246338 -1.2634421587 0.0 -0.522707819939 
-9.64250278473 -2.18192028999 0.0 -0.482754409313 
-9.99346733093 0.00805882364511 0.0 0.00434917025268 
-9.99499702454 0.0190636049956 0.0 0.0242863446474 
-9.9807138443 0.00906012393534 0.0 0.029048981145 
-9.97536087036 0.0430581904948 0.0 0.074285402894 
-9.954662323 0.00153514987323 0.0 0.0771276131272 
-9.94884681702 0.0501723513007 0.0 0.128697037697 
-9.97604942322 -0.092656224966 0.0 0.0570837818086 
-10.0089769363 -0.111454986036 0.0 0.0035319768358 
-10.4684619904 -0.632357299328 0.0 -0.657584011555 
-9.67588329315 -2.22787427902 0.0 -1.32079827785 
-9.99978923798 0.00282902200706 0.0 0.00236281100661 
-9.98599815369 -0.000301668245811 0.0 0.00637528300285 
-9.96259975433 0.0138439908624 0.0 0.01948992908 
-9.91214847565 -0.0107657713816 0.0 0.0241490229964 
-9.83989906311 0.0335991121829 0.0 0.0470687672496 
-9.73480701447 -0.0339402072132 0.0 0.0482580699027 
-9.62047195435 0.0485036447644 0.0 0.0620974227786 
-9.57328128815 -0.127965986729 0.0 -0.0207373611629 
-9.69064807892 0.0690180361271 0.0 -0.0859476178885 
-11.1431427002 -1.19161212444 0.0 -1.28003025055 
</DataArray>
<DataArray type="Float32" Name="Material_Orientation" NumberOfComponents="3" format="ascii">
0.0 0.0 0.0
0.0 0.0 0.0
0.0 0.0 0.0
0.0 0.0 0.0
0.0 0.0 0.0
0.0 0.0 0.0
0.0 0.0 0.0
0.0 0.0 0.0
0.0 0.0 0.0
0.0 0.0 0.0
0.0 0.0 0.0
0.0 0.0 0.0
0.0 0.0 0.0
0.0 0.0 0.0
0.0 0.0 0.0
0.0 0.0 0.0
0.0 0.0 0.0
0.0 0.0 0.0
0.0 0.0 0.0
0.0 0.0 0.0
0.0 0.0 0.0
0.0 0.0 0.0
0.0 0.0 0.0
0.0 0.0 0.0
0.0 0.0 0.0
0.0 0.0 0.0
0.0 0.0 0.0
0.0 0.0 0.0
0.0 0.0 0.0
0.0 0.0 0.0
0.0 0.0 0.0
0.0 0.0 0.0
0.0 0.0 0.0
0.0 0.0 0.0
0.0 0.0 0.0
0.0 0.0 0.0
0.0 0.0 0.0
0.0 0.0 0.0
0.0 0.0 0.0
0.0 0.0 0.0
0.0 0.0 0.0
0.0 0.0 0.0
0.0 0.0 0.0
0.0 0.0 0.0
0.0 0.0 0.0
0.0 0.0 0.0
0.0 0.0 0.0
0.0 0.0 0.0
0.0 0.0 0.0
0.0 0.0 0.0
0.0 0.0 0.0
0.0 0.0 0.0
0.0 0.0 0.0
0.0 0.0 0.0
0.0 0.0 0.0
0.0 0.0 0.0
0.0 0.0 0.0
0.0 0.0 0.0
0.0 0.0 0.0
0.0 0.0 0.0
0.0 0.0 0.0
0.0 0.0 0.0
0.0 0.0 0.0
0.0 0.0 0.0
0.0 0.0 0.0
0.0 0.0 0.0
0.0 0.0 0.0
0.0 0.0 0.0
0.0 0.0 0.0
0.0 0.0 0.0
0.0 0.0 0.0
0.0 0.0 0.0
0.0 0.0 0.0
0.0 0.0 0.0
0.0 0.0 0.0
0.0 0.0 0.0
0.0 0.0 0.0
0.0 0.0 0.0
0.0 0.0 0.0
0.0 0.0 0.0
</DataArray>
</CellData>
<Cells>
<DataArray type="Int64" Name="connectivity" format="ascii">
0 1 12 11 
1 2 13 12 
2 3 14 13 
3 4 15 14 
4 5 16 15 
5 6 17 16 
6 7 18 17 
7 8 19 18 
8 9 20 19 
9 10 21 20 
11 12 23 22 
12 13 24 23 
13 14 25 24 
14 15 26 25 
15 16 27 26 
16 17 28 27 
17 18 29 28 
18 19 30 29 
19 20 31 30 
20 21 32 31 
22 23 34 33 
23 24 35 34 
24 25 36 35 
25 26 37 36 
26 27 38 37 
27 28 39 38 
28 29 40 39 
29 30 41 40 
30 31 42 41 
31 32 43 42 
33 34 45 44 
34 35 46 45 
35 36 47 46 
36 37 48 47 
37 38 49 48 
38 39 50 49 
39 40 51 50 
40 41 52 51 
41 42 53 52 
42 43 54 53 
44 45 56 55 
45 46 57 56 
46 47 58 57 
47 48 59 58 
48 49 60 59 
49 50 61 60 
50 51 62 61 
51 52 63 62 
52 53 64 63 
53 54 65 64 
55 56 67 66 
56 57 68 67 
57 58 69 68 
58 59 70 69 
59 60 71 70 
60 61 72 71 
61 62 73 72 
62 63 74 73 
63 64 75 74 
64 65 76 75 
66 67 78 77 
67 68 79 78 
68 69 80 79 
69 70 81 80 
70 71 82 81 
71 72 83 82 
72 73 84 83 
73 74 85 84 
74 75 86 85 
75 76 87 86 
77 78 89 88 
78 79 90 89 
79 80 91 90 
80 81 92 91 
81 82 93 92 
82 83 94 93 
83 84 95 94 
84 85 96 95 
85 86 97 96 
86 87 98 97 
</DataArray>
<DataArray type="Int64" Name="offsets" format="ascii">
4 
8 
12 
16 
20 
24 
28 
32 
36 
40 
44 
48 
52 
56 
60 
64 
68 
72 
76 
80 
84 
88 
92 
96 
100 
104 
108 
112 
116 
120 
124 
128 
132 
136 
140 
144 
148 
152 
156 
160 
164 
168 
172 
176 
180 
184 
188 
192 
196 
200 
204 
208 
212 
216 
220 
224 
228 
232 
236 
240 
244 
248 
252 
256 
260 
264 
268 
272 
276 
280 
284 
288 
292 
296 
300 
304 
308 
312 
316 
320 
</DataArray>
<DataArray type="Int64" Name="types" format="ascii">
9 
9 
9 
9 
9 
9 
9 
9 
9 
9 
9 
9 
9 
9 
9 
9 
9 
9 
9 
9 
9 
9 
9 
9 
9 
9 
9 
9 
9 
9 
9 
9 
9 
9 
9 
9 
9 
9 
9 
9 
9 
9 
9 
9 
9 
9 
9 
9 
9 
9 
9 
9 
9 
9 
9 
9 
9 
9 
9 
9 
9 
9 
9 
9 
9 
9 
9 
9 
9 
9 
9 
9 
9 
9 
9 
9 
9 
9 
9 
9 
</DataArray>
</Cells>
</Piece>
</UnstructuredGrid>
</VTKFile>